# vtk DataFile Version 5.1
vtk output
ASCII
DATASET UNSTRUCTURED_GRID
POINTS 27 float
-1 -1 1 0 -1 1 1 -1 1 
-1 -1 0 0 -1 0 1 -1 0 
-1 -1 -1 0 -1 -1 1 -1 -1 
-1 0 1 0 0 1 1 0 1 
-1 0 0 0 0 0 1 0 0 
-1 0 -1 0 0 -1 1 0 -1 
-1 1 1 0 1 1 1 1 1 
-1 1 0 0 1 0 1 1 0 
-1 1 -1 0 1 -1 1 1 -1 

CELLS 9 64
OFFSETS vtktypeint64
0 8 16 24 32 40 48 56 64 

CONNECTIVITY vtktypeint64
0 1 4 3 9 10 13 12 1 
2 5 4 10 11 14 13 3 4 
7 6 12 13 16 15 4 5 8 
7 13 14 17 16 9 10 13 12 
18 19 22 21 10 11 14 13 19 
20 23 22 12 13 16 15 21 22 
25 24 13 14 17 16 22 23 26 
25 
CELL_TYPES 8
12
12
12
12
12
12
12
12

POINT_DATA 27
FIELD FieldData 1
zzy 1 27 long
0 1 2 3 4 5 6 7 8 
9 10 11 12 13 14 15 16 17 
18 19 20 21 22 23 24 25 26 

